[Molden Format]
made by pyscf v[1.6]
[Atoms] (AU)
Be   1   4     0.00000000000000     0.00000000000000     0.00000000000000
[GTO]
1 0
 s    6 1.00
           312.8704937  0.0091635962803903
           57.36446253   0.049361492942102
            16.0485094    0.16853830490718
           5.513096119    0.37056279971578
           2.140896553    0.41649152981774
          0.8817394283    0.13033408410555
 s    6 1.00
           13.63324744  -0.013252788089177
           2.698375464  -0.046991710137081
          0.8386530829  -0.033785371507901
          0.3226600698    0.25024178608446
          0.1401314882    0.59511725256303
          0.0642325139    0.24070617628505
 p    6 1.00
           13.63324744  0.0037596966003086
           2.698375464   0.037679369803093
          0.8386530829    0.17389674351427
          0.3226600698    0.41803643473431
          0.1401314882    0.42585954773496
          0.0642325139    0.10170829550835

[5d]
[9g]


[MO]
 Sym= A
 Ene=    -4.541834526
 Spin= Alpha
 Occup=    2.00000
   1      0.99552100178235
   2       0.0170475623967
   3                    -0
   4                    -0
   5                     0
 Sym= A
 Ene=   -0.2520962503
 Spin= Alpha
 Occup=    2.00000
   1     -0.27990682719697
   2       1.0339822423608
   3                    -0
   4                    -0
   5                    -0
 Sym= A
 Ene=    0.2196970737
 Spin= Alpha
 Occup=    0.00000
   1                     0
   2                     0
   3                     1
   4                     0
   5                     0
 Sym= A
 Ene=    0.2196970737
 Spin= Alpha
 Occup=    0.00000
   1                     0
   2                     0
   3                     0
   4                     1
   5                     0
 Sym= A
 Ene=    0.2196970737
 Spin= Alpha
 Occup=    0.00000
   1                     0
   2                     0
   3                     0
   4                     0
   5                     1
