 &FCI NORB=  5,NELEC=  4,MS2= 0,
    ORBSYM=1, 1, 1, 1, 1, 
    ISYM=1,
 &End
   2.21052687755551                1           1           1           1
 -0.346377141984968                2           1           1           1
 -0.152567451384389                1           2           1           1
  0.567644897075101                2           2           1           1
  0.557999301623090                3           3           1           1
  0.557999301623090                4           4           1           1
  0.557999301623090                5           5           1           1
 -0.346377141984968                1           1           2           1
  8.175619414471109E-002           2           1           2           1
  4.574594765693160E-002           1           2           2           1
  4.846752198713670E-003           2           2           2           1
  1.233734458413645E-002           3           3           2           1
  1.233734458413644E-002           4           4           2           1
  1.233734458413645E-002           5           5           2           1
  2.697219989583976E-002           3           1           3           1
  3.572667047214410E-002           3           2           3           1
  1.536979401777088E-002           1           3           3           1
  3.427637532795351E-002           2           3           3           1
  2.697219989583977E-002           4           1           4           1
  3.572667047214410E-002           4           2           4           1
  1.536979401777088E-002           1           4           4           1
  3.427637532795351E-002           2           4           4           1
  2.697219989583977E-002           5           1           5           1
  3.572667047214410E-002           5           2           5           1
  1.536979401777089E-002           1           5           5           1
  3.427637532795351E-002           2           5           5           1
 -0.152567451384389                1           1           1           2
  4.574594765693160E-002           2           1           1           2
  9.735701169152101E-003           1           2           1           2
 -3.326992651339386E-002           2           2           1           2
 -2.755296546173790E-002           3           3           1           2
 -2.755296546173790E-002           4           4           1           2
 -2.755296546173790E-002           5           5           1           2
  0.567644897075102                1           1           2           2
  4.846752198713295E-003           2           1           2           2
 -3.326992651339424E-002           1           2           2           2
  0.398658637330243                2           2           2           2
  0.403633239979242                3           3           2           2
  0.403633239979242                4           4           2           2
  0.403633239979242                5           5           2           2
  3.572667047214414E-002           3           1           3           2
  9.068795400472004E-002           3           2           3           2
  4.973475981701624E-003           1           3           3           2
  8.313346086641030E-002           2           3           3           2
  3.572667047214414E-002           4           1           4           2
  9.068795400472004E-002           4           2           4           2
  4.973475981701617E-003           1           4           4           2
  8.313346086641030E-002           2           4           4           2
  3.572667047214414E-002           5           1           5           2
  9.068795400472004E-002           5           2           5           2
  4.973475981701661E-003           1           5           5           2
  8.313346086641030E-002           2           5           5           2
  1.536979401777088E-002           3           1           1           3
  4.973475981701590E-003           3           2           1           3
  3.767388139701998E-003           1           3           1           3
  3.523180837510995E-003           2           3           1           3
  3.427637532795354E-002           3           1           2           3
  8.313346086641030E-002           3           2           2           3
  3.523180837511030E-003           1           3           2           3
  7.557896772810056E-002           2           3           2           3
  0.557999301623090                1           1           3           3
  1.233734458413677E-002           2           1           3           3
 -2.755296546173759E-002           1           2           3           3
  0.403633239979243                2           2           3           3
  0.441202361764492                3           3           3           3
  0.395866076208057                4           4           3           3
  0.395866076208057                5           5           3           3
  2.284192710827061E-002           4           3           4           3
  2.284192710827061E-002           3           4           4           3
  2.284192710827061E-002           5           3           5           3
  2.284192710827061E-002           3           5           5           3
  1.536979401777088E-002           4           1           1           4
  4.973475981701583E-003           4           2           1           4
  3.767388139701998E-003           1           4           1           4
  3.523180837510988E-003           2           4           1           4
  3.427637532795354E-002           4           1           2           4
  8.313346086641030E-002           4           2           2           4
  3.523180837511023E-003           1           4           2           4
  7.557896772810056E-002           2           4           2           4
  2.284192710827061E-002           4           3           3           4
  2.284192710827061E-002           3           4           3           4
  0.557999301623090                1           1           4           4
  1.233734458413675E-002           2           1           4           4
 -2.755296546173759E-002           1           2           4           4
  0.403633239979243                2           2           4           4
  0.395866076208057                3           3           4           4
  0.441202361764492                4           4           4           4
  0.395866076208057                5           5           4           4
  2.284192710827061E-002           5           4           5           4
  2.284192710827061E-002           4           5           5           4
  1.536979401777089E-002           5           1           1           5
  4.973475981701626E-003           5           2           1           5
  3.767388139702000E-003           1           5           1           5
  3.523180837511030E-003           2           5           1           5
  3.427637532795354E-002           5           1           2           5
  8.313346086641030E-002           5           2           2           5
  3.523180837511065E-003           1           5           2           5
  7.557896772810055E-002           2           5           2           5
  2.284192710827061E-002           5           3           3           5
  2.284192710827061E-002           3           5           3           5
  2.284192710827061E-002           5           4           4           5
  2.284192710827061E-002           4           5           4           5
  0.557999301623090                1           1           5           5
  1.233734458413677E-002           2           1           5           5
 -2.755296546173758E-002           1           2           5           5
  0.403633239979243                2           2           5           5
  0.395866076208057                3           3           5           5
  0.395866076208057                4           4           5           5
  0.441202361764492                5           5           5           5
  -7.93869047825835                1           1           0           0
  0.273738275584964                1           2           0           0
  0.273738275584964                2           1           0           0
  -1.77073986908215                2           2           0           0
  -1.63871998257113                3           3           0           0
  -1.63871998257113                4           4           0           0
  -1.63871998257113                5           5           0           0
  8.000000000000000E-200           0           0           0           0
