[Molden Format]
made by pyscf v[1.7.6]
[Atoms] (AU)
Li   1   3     0.00000000000000     0.00000000000000     0.00000000000000
H   2   1     0.00000000000000     0.00000000000000     3.01411316868127
[GTO]
1 0
 s    8 1.00
                  1469  0.00076560123212419
                 220.5  0.0058889327149814
                 50.26   0.029655553731536
                 14.24    0.10912316256308
                 4.581    0.28264178437489
                  1.58    0.45288711110158
                 0.564    0.27463095686122
               0.07345  0.0097459237786462
 s    8 1.00
                  1469  -0.00022499196109553
                 220.5  -0.0017305631674265
                 50.26  -0.0087915608798079
                 14.24  -0.033152565467426
                 4.581  -0.091687974012447
                  1.58   -0.18001044327351
                 0.564   -0.25570336378507
               0.07345     1.0782777234163
 s    1 1.00
               0.02805                   1
 p    3 1.00
                 1.534    0.03800398103474
                0.2749     0.2320321185832
               0.07362    0.83463140845584
 p    1 1.00
               0.02403                   1
 d    1 1.00
                0.1239                   1

2 0
 s    3 1.00
                 13.01   0.033498726389998
                 1.962    0.23480080117413
                0.4446     0.8136829578829
 s    1 1.00
                 0.122                   1
 p    1 1.00
                 0.727                   1

[5d]
[7f]
[9g]

[MO]
 Sym= A
 Ene=               0
 Spin= Alpha
 Occup=    2.00000
   1       0.9977341916822
   2    -0.011992424756835
   3    -0.0067019499029615
   4    2.1663459200711e-18
   5    9.2682162780921e-19
   6    -0.019229942849099
   7    -1.5946639946218e-18
   8    9.971905915186e-19
   9    0.0026448758030231
  10    -0.0059053862337491
  11    -3.8312678257441e-19
  12    1.2866004163173e-19
  13    7.2456018257742e-35
  14    -3.2087841888213e-32
  15    -0.003574802640967
  16    0.0086441142870398
  17    -1.5492119567352e-19
  18    1.5670517805012e-19
  19    -0.0014910500754492
 Sym= A
 Ene=               1
 Spin= Alpha
 Occup=    2.00000
   1    -0.0096128067661663
   2      0.29533542681325
   3      0.10935466667838
   4    -1.8630321786704e-17
   5    -1.2106908076468e-16
   6      0.27821066418807
   7    3.5634850182078e-17
   8    -1.7893768331521e-17
   9     0.008292715224166
  10     0.056318208842145
  11    7.5340319145994e-18
  12    3.0339541166386e-18
  13    -2.950395507053e-33
  14    1.7122578103643e-30
  15      0.39422325016619
  16      0.24435122611368
  17    2.1015196573495e-18
  18    -3.6565790007273e-18
  19    -0.013153724613717
 Sym= A
 Ene=               2
 Spin= Alpha
 Occup=    0.00000
   1      0.09242479445709
   2      0.58040241417038
   3      0.26307533234255
   4    2.2482793990455e-16
   5    -3.8304925143783e-16
   6      0.45040343887657
   7    -8.9692019694693e-17
   8    -1.3042486984614e-16
   9     0.056054944153361
  10     0.048307147941327
  11    2.2439040096549e-17
  12    -9.82896126725e-17
  13    -3.4142056555132e-29
  14    1.0307260277371e-28
  15      -1.0322687931595
  16     0.013326301168697
  17    2.2630029157369e-17
  18    -6.0461301600053e-17
  19     0.022646203060617
 Sym= A
 Ene=               3
 Spin= Alpha
 Occup=    0.00000
   1    -1.4341841379983e-16
   2    -4.646392547236e-16
   3    3.6439856792559e-17
   4      0.56703126159524
   5     -0.20805178039742
   6    -1.2196034496032e-16
   7    -0.062023843666943
   8     0.022757424459623
   9    -1.7212460372937e-16
  10    -3.2694413950567e-16
  11      0.46340793435989
  12     -0.17003091773569
  13    -8.6034063765969e-17
  14    -1.5925414103446e-16
  15    2.3631439419927e-16
  16    3.0652119733818e-16
  17      0.44368808392936
  18     -0.16279542602806
  19    -1.0074206050249e-16
 Sym= A
 Ene=               4
 Spin= Alpha
 Occup=    0.00000
   1    7.8507567506015e-17
   2    2.4882928891717e-16
   3    1.751700486324e-16
   4      0.20805178039742
   5      0.56703126159524
   6    4.2069645847222e-16
   7    -0.022757424459623
   8    -0.062023843666943
   9    -1.3871125743827e-16
  10    4.2343948836121e-18
  11      0.17003091773569
  12      0.46340793435989
  13    1.9143535711888e-16
  14    -2.8078715959532e-16
  15    1.9542751175783e-18
  16    -4.7033038981243e-16
  17      0.16279542602806
  18      0.44368808392936
  19    -1.493892701151e-16
 Sym= A
 Ene=               5
 Spin= Alpha
 Occup=    0.00000
   1      0.52040540169766
   2       1.3960576383057
   3     -0.40129960787737
   4    7.6423240265412e-18
   5    -1.5824338299417e-17
   6       1.1117989247137
   7    2.2594517330885e-18
   8    2.0968194028317e-16
   9     -0.25230878296007
  10       0.3652679609859
  11    -6.7233360281633e-17
  12    -7.9313044599815e-17
  13     1.83756184262e-29
  14    -3.5730740425288e-29
  15       0.2582982201429
  16      -1.7354894623431
  17    -5.8759026211754e-17
  18    -8.513797671016e-17
  19     -0.58666103669623
 Sym= A
 Ene=               6
 Spin= Alpha
 Occup=    0.00000
   1      0.12447961696891
   2      0.32344727468774
   3      0.65227395702272
   4    1.3136509756874e-15
   5    -3.3004328515916e-15
   6     -0.18020962877325
   7    -4.726763535598e-16
   8    -4.7373506735658e-16
   9      0.37719155009533
  10      -0.4200997568888
  11    4.2695160285839e-16
  12    -1.6411545745793e-15
  13    -2.8472628759065e-29
  14    5.2399460121529e-28
  15      0.95708353139427
  16      -1.3172534831876
  17    -1.412841037702e-15
  18    4.7750439499495e-15
  19      0.21788190117544
 Sym= A
 Ene=               7
 Spin= Alpha
 Occup=    0.00000
   1    -6.9814909378529e-16
   2    -1.9683046733348e-15
   3    -3.0092398096858e-15
   4     -0.24270315077911
   5     -0.62915658664807
   6     3.24458405028e-16
   7     0.026996720363294
   8     0.069983287732103
   9    -9.3726963316407e-16
  10    1.3924792932257e-15
  11     -0.13502955611219
  12     -0.35003556545283
  13    -1.057522838495e-16
  14    -1.2982039676541e-16
  15    -3.9814835238115e-15
  16    6.2003054491758e-15
  17      0.32775521478605
  18      0.84963607406388
  19    -1.2047448330948e-15
 Sym= A
 Ene=               8
 Spin= Alpha
 Occup=    0.00000
   1    -1.4510056604702e-16
   2    -5.3968484288991e-16
   3    -2.414730932232e-15
   4      0.62915658664807
   5     -0.24270315077911
   6    1.1810883500758e-15
   7    -0.069983287732103
   8     0.026996720363293
   9    -8.0617771607512e-16
  10    1.6782674636706e-15
  11      0.35003556545283
  12     -0.13502955611219
  13    -2.8746024190831e-16
  14    -3.7512089938833e-16
  15    -3.1849078877633e-15
  16    3.5041090406284e-15
  17     -0.84963607406388
  18      0.32775521478604
  19    -6.2943410494365e-16
 Sym= A
 Ene=               9
 Spin= Alpha
 Occup=    0.00000
   1      0.86681533813786
   2       2.1975701587579
   3     -0.94708996741344
   4    -6.77289147259e-16
   5    -1.1144375754075e-15
   6        1.811556981971
   7    5.0805698376831e-16
   8    1.8942888756278e-15
   9     -0.60019176251376
  10      0.59977633698888
  11    3.5936284102846e-16
  12    -3.4366614819609e-16
  13    4.2824630221164e-29
  14    -5.7795372503184e-28
  15    -0.051281336975169
  16      -1.9817117619166
  17    3.2022124594067e-17
  18    3.806873808238e-16
  19      0.89564031562012
 Sym= A
 Ene=              10
 Spin= Alpha
 Occup=    0.00000
   1     -0.26232827601305
   2     -0.18709349266151
   3      -1.2139650190543
   4    1.2105314383937e-15
   5    -3.824137905041e-15
   6      -1.9894947259869
   7    -2.6241586525799e-15
   8    8.3426557736594e-15
   9     -0.13752997203217
  10      -0.8669104810833
  11    7.4777741999903e-16
  12    -1.7517367361058e-15
  13    1.2276084331172e-28
  14    -2.7316284906677e-27
  15     -0.15166612238812
  16       2.6245911214913
  17    -3.8064504004791e-16
  18    9.5663517470487e-16
  19     -0.30106502765553
 Sym= A
 Ene=              11
 Spin= Alpha
 Occup=    0.00000
   1    -4.849695277114e-27
   2    -1.1773998418334e-26
   3    -1.4547954287892e-27
   4    1.2099219420395e-15
   5    -3.3371498100161e-15
   6    -7.5011257363308e-27
   7    8.0253792841498e-16
   8    3.1416952874753e-15
   9    -5.6665976954782e-27
  10    -1.073383692146e-26
  11    -1.8574123477492e-15
  12    2.3638566824151e-15
  13    -0.006228997703925
  14      0.99998059960561
  15    -1.7146938335253e-28
  16    1.9755121992901e-26
  17    3.8645980682252e-16
  18    -5.1016835849902e-16
  19    -1.960804016374e-27
 Sym= A
 Ene=              12
 Spin= Alpha
 Occup=    0.00000
   1    -1.2292900055838e-27
   2    -3.2483525145169e-27
   3    4.3374793857461e-28
   4    2.5147238738068e-14
   5    1.4228738945772e-13
   6    -1.0157352263145e-27
   7    -2.4467302444135e-13
   8    -1.6793607071067e-13
   9    -1.4239875103162e-27
  10    -2.4733673957044e-27
  11    1.6997675400628e-13
  12    -7.2782588335889e-14
  13      0.99998059960561
  14    0.0062289977039251
  15    3.9988696508532e-29
  16    3.9584345913836e-27
  17    -5.6855711207241e-14
  18    1.895337840495e-14
  19    -3.7114413562622e-28
 Sym= A
 Ene=              13
 Spin= Alpha
 Occup=    0.00000
   1    -1.0009028892462e-15
   2    -3.1505988466214e-15
   3    3.7177536204952e-15
   4     -0.22028928897455
   5     -0.83354263611269
   6    1.3627169087592e-15
   7      0.17049433130317
   8      0.64512575721794
   9    -1.345140263367e-15
  10    3.4703023703335e-16
  11      0.18812303233941
  12      0.71183019846159
  13    1.1243282525431e-13
  14    -2.1201700782277e-15
  15    9.9305192793199e-17
  16    -6.8328535463841e-16
  17    -0.053963284930109
  18     -0.20418922310446
  19    -1.6319823358723e-16
 Sym= A
 Ene=              14
 Spin= Alpha
 Occup=    0.00000
   1    -6.3420652934997e-15
   2    -1.614298492522e-14
   3    2.8622712088684e-15
   4     -0.83354263611271
   5      0.22028928897455
   6    -7.4544203824276e-15
   7      0.64512575721798
   8     -0.17049433130318
   9    -6.0061467238122e-15
  10    -1.2188824268623e-14
  11      0.71183019846158
  12     -0.18812303233941
  13    -1.1209889905896e-13
  14    1.8022875274542e-15
  15    6.6433148077669e-16
  16    2.003526890313e-14
  17     -0.20418922310445
  18     0.053963284930107
  19    -2.4894158761431e-15
 Sym= A
 Ene=              15
 Spin= Alpha
 Occup=    0.00000
   1    -1.9656284457876e-14
   2    -4.6612906480005e-14
   3    2.238905956308e-13
   4     0.083356706461826
   5     -0.33381986548004
   6    1.0367338907052e-13
   7      -0.2647433943595
   8       1.0602218830739
   9    -1.6641861984654e-13
  10    1.7420483015246e-13
  11     0.099109681562358
  12     -0.39690604357132
  13    1.781892250855e-15
  14    -9.845049423158e-17
  15    -3.6912827825446e-14
  16    -1.3522860922751e-13
  17     -0.03565714678405
  18      0.14279671604227
  19    1.9781140263467e-14
 Sym= A
 Ene=              16
 Spin= Alpha
 Occup=    0.00000
   1    -2.1947010436758e-15
   2    -6.0416296477706e-15
   3    2.6971105041702e-15
   4      0.33381986548003
   5     0.083356706461848
   6    1.3849329199082e-16
   7      -1.0602218830739
   8     -0.26474339435952
   9    -4.1204128764864e-15
  10    -2.9505871500595e-15
  11      0.39690604357133
  12     0.099109681562338
  13    -2.813832341938e-13
  14    2.7255922540279e-16
  15    -1.0500963020388e-16
  16    5.0165211117119e-15
  17     -0.14279671604227
  18    -0.035657146784044
  19    -3.7604915627017e-16
 Sym= A
 Ene=              17
 Spin= Alpha
 Occup=    0.00000
   1      0.55163106271677
   2       1.4558653288987
   3      0.11044897934854
   4    -1.572070547253e-14
   5    4.2586526588196e-14
   6      0.72184413225168
   7    3.4837692005547e-14
   8    -1.3259594866356e-13
   9      0.30823816352399
  10       1.4674164170237
  11    -5.8121193369308e-15
  12    4.7835040471749e-14
  13    -1.064562629869e-27
  14    1.7209765722881e-25
  15     -0.12846180413617
  16      -2.0366146826403
  17    2.5626280794088e-15
  18    -1.7049163900091e-14
  19      0.23566165089556
 Sym= A
 Ene=              18
 Spin= Alpha
 Occup=    0.00000
   1     -0.44033387324556
   2      -1.1191889878918
   3      0.99617971659803
   4    -1.3915620886584e-14
   5    6.6740046547296e-14
   6     0.017140536592233
   7    5.3527124988828e-14
   8    -2.1244692041988e-13
   9      -1.0271004236675
  10    -0.058568895183722
  11    -2.4164740244152e-14
  12     7.86433107382e-14
  13    2.0019785200056e-29
  14    2.1636448720833e-28
  15     -0.11420432943244
  16      0.65952997497113
  17    8.290541410792e-15
  18    -2.7818797564371e-14
  19    -0.051631728022109
