[Molden Format]
made by pyscf v[1.6]
[Atoms] (AU)
H   1   1     0.00000000000000     0.00000000000000     0.00000000000000
H   2   1     0.00000000000000     0.00000000000000     1.32280828719554
[GTO]
1 0
 s    6 1.00
           35.52322122  0.0091635962807908
           6.513143725    0.04936149294426
           1.822142904    0.16853830491455
           0.625955266    0.37056279973198
           0.243076747    0.41649152983594
           0.100112428    0.13033408411125

2 0
 s    6 1.00
           35.52322122  0.0091635962807908
           6.513143725    0.04936149294426
           1.822142904    0.16853830491455
           0.625955266    0.37056279973198
           0.243076747    0.41649152983594
           0.100112428    0.13033408411125

[5d]
[9g]


[MO]
 Sym= A
 Ene=    -0.599854478
 Spin= Alpha
 Occup=    2.00000
   1      0.54458337954149
   2      0.54458337954149
 Sym= A
 Ene=    0.7109731033
 Spin= Alpha
 Occup=    0.00000
   1       1.2617587881526
   2      -1.2617587881526
